# vtk DataFile Version 3.0 
vtk output
ASCII
DATASET POLYDATA
POINTS 7 float
0.000E+00 0.000E+00 0.000E+00
-1.947E-01 -4.879E-01 2.954E+00
-3.893E-01 -9.759E-01 5.907E+00
-5.840E-01 -1.464E+00 8.861E+00
-7.787E-01 -1.952E+00 1.181E+01
-9.733E-01 -2.440E+00 1.477E+01
-1.168E+00 -2.928E+00 1.772E+01
LINES 6 18
2 0 1
2 1 2
2 2 3
2 3 4
2 4 5
2 5 6
CELL_DATA 1
POINT_DATA 7
scalars pointvar float
LOOKUP_TABLE default
1.2 1.3 1.4 1.5