# vtk DataFile Version 3.0 
vtk output
ASCII
DATASET POLYDATA
POINTS 37 float
0.000E+00 0.000E+00 0.000E+00
-7.105E-01 2.764E+00 -9.236E-01
-3.316E+00 4.624E+00 -1.904E+00
-6.431E+00 5.644E+00 -2.791E+00
-9.393E+00 6.381E+00 -3.881E+00
-1.324E+01 4.864E+00 -5.099E+00
-1.403E+01 3.300E+00 -4.140E+00
-1.365E+01 5.491E+00 -2.936E+00
-1.313E+01 6.912E+00 -2.200E+00
-1.108E+01 4.435E+00 -1.254E+00
-1.098E+01 4.812E+00 -6.219E-01
-1.061E+01 5.579E+00 -5.240E-01
-1.160E+01 5.121E-01 -3.041E+00
-1.187E+01 5.031E-01 -1.691E+00
-8.996E+00 2.100E-01 -1.908E-01
-8.953E+00 -5.767E-01 -7.122E-01
-8.869E+00 -1.699E-01 -1.519E+00
-8.849E+00 2.648E-01 -1.618E+00
-8.841E+00 6.844E-01 -1.541E+00
-8.854E+00 6.995E-01 -1.454E+00
-8.929E+00 1.079E+00 -3.358E-01
-8.761E+00 2.058E+00 -1.016E-01
-8.976E+00 6.570E-01 6.134E-05
-8.981E+00 5.853E-01 -3.200E-02
-8.979E+00 6.145E-01 1.019E-02
-8.905E+00 -1.621E-01 -1.294E+00
-8.937E+00 2.282E-01 -1.042E+00
-8.968E+00 5.607E-01 -5.177E-01
-8.939E+00 1.042E+00 7.197E-02
-5.944E+00 -6.251E-01 5.303E-01
-5.898E+00 -8.380E-01 7.150E-01
-5.927E+00 -8.153E-01 -4.582E-01
-4.065E+00 3.863E+00 -2.135E+00
-3.939E+00 3.691E+00 -2.620E+00
-5.719E+00 1.808E+00 -1.554E-01
-5.822E+00 1.442E+00 1.742E-01
-5.428E+00 5.439E-01 2.498E+00
LINES 36 108
2 0 1
2 1 2
2 2 3
2 3 4
2 4 5
2 5 6
2 6 7
2 7 8
2 8 9
2 9 10
2 10 11
2 11 12
2 12 13
2 13 14
2 14 15
2 15 16
2 16 17
2 17 18
2 18 19
2 19 20
2 20 21
2 21 22
2 22 23
2 23 24
2 24 25
2 25 26
2 26 27
2 27 28
2 28 29
2 29 30
2 30 31
2 31 32
2 32 33
2 33 34
2 34 35
2 35 36
CELL_DATA 1
POINT_DATA 37
scalars pointvar float
LOOKUP_TABLE default
1.2 1.3 1.4 1.5