# vtk DataFile Version 3.0 
vtk output
ASCII
DATASET POLYDATA
POINTS 7 float
0.000E+00 0.000E+00 0.000E+00
2.913E+00 -1.700E-01 -6.968E-01
5.826E+00 -3.399E-01 -1.394E+00
8.739E+00 -5.099E-01 -2.090E+00
1.165E+01 -6.798E-01 -2.787E+00
1.127E+01 2.403E+00 -9.600E+00
1.052E+01 3.935E+00 -1.406E+01
LINES 6 18
2 0 1
2 1 2
2 2 3
2 3 4
2 4 5
2 5 6
CELL_DATA 1
POINT_DATA 7
scalars pointvar float
LOOKUP_TABLE default
1.2 1.3 1.4 1.5