# vtk DataFile Version 3.0 
vtk output
ASCII
DATASET POLYDATA
POINTS 7 float
0.000E+00 0.000E+00 0.000E+00
-1.855E+00 -1.348E+00 1.934E+00
-3.711E+00 -2.697E+00 3.868E+00
-5.194E+00 -4.060E+00 6.127E+00
-6.269E+00 -5.820E+00 8.416E+00
-5.530E+00 -9.810E+00 9.909E+00
-8.375E+00 -1.197E+01 1.051E+01
LINES 6 18
2 0 1
2 1 2
2 2 3
2 3 4
2 4 5
2 5 6
CELL_DATA 1
POINT_DATA 7
scalars pointvar float
LOOKUP_TABLE default
1.2 1.3 1.4 1.5