# vtk DataFile Version 3.0 
vtk output
ASCII
DATASET POLYDATA
POINTS 7 float
0.000E+00 0.000E+00 0.000E+00
5.837E-01 -9.611E-01 2.781E+00
1.167E+00 -1.922E+00 5.563E+00
1.751E+00 -2.883E+00 8.344E+00
2.335E+00 -3.844E+00 1.113E+01
2.919E+00 -4.805E+00 1.391E+01
3.502E+00 -5.766E+00 1.669E+01
LINES 6 18
2 0 1
2 1 2
2 2 3
2 3 4
2 4 5
2 5 6
CELL_DATA 1
POINT_DATA 7
scalars pointvar float
LOOKUP_TABLE default
1.2 1.3 1.4 1.5