# vtk DataFile Version 3.0 
vtk output
ASCII
DATASET POLYDATA
POINTS 7 float
0.000E+00 0.000E+00 0.000E+00
8.118E-01 2.223E+00 1.843E+00
-8.359E-01 5.644E+00 1.858E+00
-2.221E+00 8.519E+00 1.870E+00
-3.562E+00 1.130E+01 1.882E+00
-4.888E+00 1.405E+01 1.893E+00
-6.018E+00 1.684E+01 2.038E+00
LINES 6 18
2 0 1
2 1 2
2 2 3
2 3 4
2 4 5
2 5 6
CELL_DATA 1
POINT_DATA 7
scalars pointvar float
LOOKUP_TABLE default
1.2 1.3 1.4 1.5