# vtk DataFile Version 3.0 
vtk output
ASCII
DATASET POLYDATA
POINTS 7 float
0.000E+00 0.000E+00 0.000E+00
-5.397E-01 5.370E-02 -2.951E+00
-1.360E+00 6.864E-02 -5.844E+00
-2.178E+00 8.354E-02 -8.732E+00
-2.997E+00 9.845E-02 -1.162E+01
-3.815E+00 1.133E-01 -1.451E+01
-4.633E+00 1.282E-01 -1.739E+01
LINES 6 18
2 0 1
2 1 2
2 2 3
2 3 4
2 4 5
2 5 6
CELL_DATA 1
POINT_DATA 7
scalars pointvar float
LOOKUP_TABLE default
1.2 1.3 1.4 1.5