# vtk DataFile Version 3.0 
vtk output
ASCII
DATASET POLYDATA
POINTS 7 float
0.000E+00 0.000E+00 0.000E+00
1.758E+00 4.489E-01 -2.389E+00
3.517E+00 8.978E-01 -4.778E+00
5.275E+00 1.347E+00 -7.167E+00
7.034E+00 1.796E+00 -9.555E+00
8.792E+00 2.244E+00 -1.194E+01
1.220E+01 2.235E+00 -1.304E+01
LINES 6 18
2 0 1
2 1 2
2 2 3
2 3 4
2 4 5
2 5 6
CELL_DATA 1
POINT_DATA 7
scalars pointvar float
LOOKUP_TABLE default
1.2 1.3 1.4 1.5