# vtk DataFile Version 3.0 
vtk output
ASCII
DATASET POLYDATA
POINTS 7 float
0.000E+00 0.000E+00 0.000E+00
-1.175E+00 1.399E+00 -2.380E+00
-2.349E+00 2.798E+00 -4.759E+00
-3.524E+00 4.198E+00 -7.139E+00
-4.698E+00 5.597E+00 -9.519E+00
-5.873E+00 6.996E+00 -1.190E+01
-7.047E+00 8.395E+00 -1.428E+01
LINES 6 18
2 0 1
2 1 2
2 2 3
2 3 4
2 4 5
2 5 6
CELL_DATA 1
POINT_DATA 7
scalars pointvar float
LOOKUP_TABLE default
1.2 1.3 1.4 1.5