# vtk DataFile Version 3.0
vtk output
ASCII
DATASET POLYDATA
points 8 float
1 0 0
0 0 0
0 1 0
1 1 0
1 1 1
0 1 1
0 0 1
1 0 1
POLYGONS 1 9
8 0 1 2 3 4 5 6 7
CELL_DATA 1
POINT_DATA 8
SCALARS nodal float
LOOKUP_TABLE default
0 1 2 1.1
